
                                 *****************
                                 * O   R   C   A *
                                 *****************

           --- An Ab Initio, DFT and Semiempirical electronic structure package ---

                  #######################################################
                  #                        -***-                        #
                  #  Department of molecular theory and spectroscopy    #
                  #              Directorship: Frank Neese              #
                  # Max Planck Institute for Chemical Energy Conversion #
                  #                  D-45470 Muelheim/Ruhr              #
                  #                       Germany                       #
                  #                                                     #
                  #                  All rights reserved                #
                  #                        -***-                        #
                  #######################################################


                         Program Version 3.0.1 -  RELEASE  -


 With contributions from (in alphabetic order):
   Ute Becker             : Parallelization
   Dmytro Bykov           : SCF Hessian
   Dmitry Ganyushin       : Spin-Orbit,Spin-Spin,Magnetic field MRCI
   Andreas Hansen         : Spin unrestricted coupled pair/coupled cluster methods
   Dimitrios Liakos       : Extrapolation schemes; parallel MDCI
   Robert Izsak           : Overlap fitted RIJCOSX, COSX-SCS-MP3
   Christian Kollmar      : KDIIS, OOCD, Brueckner-CCSD(T), CCSD density
   Simone Kossmann        : Meta GGA functionals, TD-DFT gradient, OOMP2, MP2 Hessian
   Taras Petrenko         : DFT Hessian,TD-DFT gradient, ASA and ECA modules, normal mode analysis, Resonance Raman, ABS, FL, XAS/XES, NRVS
   Christoph Reimann      : Effective Core Potentials
   Michael Roemelt        : Restricted open shell CIS
   Christoph Riplinger    : Improved optimizer, TS searches, QM/MM, DLPNO-CCSD
   Barbara Sandhoefer     : DKH picture change effects
   Igor Schapiro          : Molecular dynamics
   Kantharuban Sivalingam : CASSCF convergence, NEVPT2
   Boris Wezisla          : Elementary symmetry handling
   Frank Wennmohs         : Technical directorship


 We gratefully acknowledge several colleagues who have allowed us to
 interface, adapt or use parts of their codes:
   Stefan Grimme, W. Hujo, H. Kruse, T. Risthaus : VdW corrections, initial TS optimization,
                                                   DFT functionals, gCP
   Ed Valeev                                     : LibInt (2-el integral package), F12 methods
   Garnet Chan, S. Sharma, R. Olivares           : DMRG
   Ulf Ekstrom                                   : XCFun DFT Library
   Mihaly Kallay                                 : mrcc  (arbitrary order and MRCC methods)
   Andreas Klamt, Michael Diedenhofen            : otool_cosmo (COSMO solvation model)
   Frank Weinhold                                : gennbo (NPA and NBO analysis)


 Your calculation uses the libint2 library for the computation of 2-el integrals
 For citations please refer to: http://libint.valeyev.net

 This ORCA versions uses:
   CBLAS   interface :  Fast vector & matrix operations
   LAPACKE interface :  Fast linear algebra routines
   SCALAPACK package :  Parallel linear algebra routines


Your calculation utilizes the basis: 6-31G
Cite in your paper:
H - He: W.J. Hehre, R. Ditchfield and J.A. Pople, J. Chem. Phys. 56,
Li - Ne: 2257 (1972).  Note: Li and B come from J.D. Dill and J.A.
         Pople, J. Chem. Phys. 62, 2921 (1975).
Na - Ar: M.M. Francl, W.J. Pietro, W.J. Hehre, J.S. Binkley, M.S. Gordon,
         D.J. DeFrees and J.A. Pople, J. Chem. Phys. 77, 3654 (1982)
K  - Zn: V. Rassolov, J.A. Pople, M. Ratner and T.L. Windus, J. Chem. Phys.
         (accepted, 1998)
Note: He and Ne are unpublished basis sets taken from the Gaussian program

================================================================================
                                        WARNINGS
                       Please study these warnings very carefully!
================================================================================
Now building the actual basis set

WARNING: Geometry Optimization
  ===> : Switching off AutoStart
         For restart on a previous wavefunction, please use MOREAD


INFO   : the flag for use of LIBINT has been found!

================================================================================
                                       INPUT FILE
================================================================================
NAME = h2o.inp
|  1> %MaxCore 3000
|  2> ! HF 6-31G(d) TightSCF TightOpt KeepDens
|  3> 
|  4> * xyz 0 1
|  5> H    0.96           0              0
|  6> O    0              0              0
|  7> H   -0.240364803892 0.929421734763 0
|  8> *
|  9> 
| 10>                          ****END OF INPUT****
================================================================================

                       *****************************
                       * Geometry Optimization Run *
                       *****************************

Geometry optimization settings:
Update method            Update   .... BFGS
Choice of coordinates    CoordSys .... Redundant Internals
Initial Hessian          InHess   .... Almoef's Model

Convergence Tolerances:
Energy Change            TolE     ....  1.0000e-06 Eh
Max. Gradient            TolMAXG  ....  1.0000e-04 Eh/bohr
RMS Gradient             TolRMSG  ....  3.0000e-05 Eh/bohr
Max. Displacement        TolMAXD  ....  1.0000e-03 bohr
RMS Displacement         TolRMSD  ....  6.0000e-04 bohr

------------------------------------------------------------------------------
                        ORCA OPTIMIZATION COORDINATE SETUP
------------------------------------------------------------------------------

The optimization will be done in new redundant internal coordinates
Making redundant internal coordinates   ...  (new redundants) done
Evaluating the initial hessian          ...  (Almloef) done
Evaluating the coordinates              ...  done
Calculating the B-matrix                .... done
Calculating the G-matrix                .... done
Diagonalizing the G-matrix              .... done
The first mode is                       ....    0
The number of degrees of freedom        ....    3

    -----------------------------------------------------------------
                    Redundant Internal Coordinates


    -----------------------------------------------------------------
         Definition                    Initial Value    Approx d2E/dq
    -----------------------------------------------------------------
      1. B(O   1,H   0)                  0.9600         0.519956   
      2. B(H   2,O   1)                  0.9600         0.519956   
      3. A(H   0,O   1,H   2)          104.5000         0.321834   
    -----------------------------------------------------------------

Number of atoms                         .... 3
Number of degrees of freedom            .... 3

         *************************************************************
         *                GEOMETRY OPTIMIZATION CYCLE   1            *
         *************************************************************
---------------------------------
CARTESIAN COORDINATES (ANGSTROEM)
---------------------------------
  H      0.960000    0.000000    0.000000
  O      0.000000    0.000000    0.000000
  H     -0.240365    0.929422    0.000000

----------------------------
CARTESIAN COORDINATES (A.U.)
----------------------------
  NO LB      ZA    FRAG    MASS        X           Y           Z
   0 H     1.0000    0     1.008          1.814137088564401          0.000000000000000          0.000000000000000
   1 O     8.0000    0    15.999          0.000000000000000          0.000000000000000          0.000000000000000
   2 H     1.0000    0     1.008         -0.454223651589569          1.756352541616067          0.000000000000000

--------------------------------
INTERNAL COORDINATES (ANGSTROEM)
--------------------------------
 H      0   0   0   0.000000     0.000     0.000
 O      1   0   0   0.960000     0.000     0.000
 H      2   1   0   0.960000   104.500     0.000

---------------------------
INTERNAL COORDINATES (A.U.)
---------------------------
 H      0   0   0   0.000000     0.000     0.000
 O      1   0   0   1.814137     0.000     0.000
 H      2   1   0   1.814137   104.500     0.000

---------------------
BASIS SET INFORMATION
---------------------
There are 2 groups of distinct atoms

 Group   1 Type H   : 4s contracted to 2s pattern {31}
 Group   2 Type O   : 10s4p1d contracted to 3s2p1d pattern {631/31/1}

Atom   0H    basis set group =>   1
Atom   1O    basis set group =>   2
Atom   2H    basis set group =>   1
------------------------------------------------------------------------------
                           ORCA GTO INTEGRAL CALCULATION
------------------------------------------------------------------------------

                         BASIS SET STATISTICS AND STARTUP INFO

 # of primitive gaussian shells          ...   23
 # of primitive gaussian functions       ...   35
 # of contracted shell                   ...   10
 # of contracted basis functions         ...   18
 Highest angular momentum                ...    2
 Maximum contraction depth               ...    6
 Integral package used                   ... LIBINT
 Integral threshhold            Thresh   ...  2.500e-11
 Primitive cut-off              TCut     ...  2.500e-12


                              INTEGRAL EVALUATION

 One electron integrals                  ... done
 Pre-screening matrix                    ... done
 Shell pair data                         ... done (   0.000 sec)

-------------------------------------------------------------------------------
                                 ORCA SCF
-------------------------------------------------------------------------------

------------
SCF SETTINGS
------------
Hamiltonian:
 Ab initio Hamiltonian  Method          .... Hartree-Fock(GTOs)


General Settings:
 Integral files         IntName         .... h2o
 Hartree-Fock type      HFTyp           .... RHF
 Total Charge           Charge          ....    0
 Multiplicity           Mult            ....    1
 Number of Electrons    NEL             ....   10
 Basis Dimension        Dim             ....   18
 Nuclear Repulsion      ENuc            ....      9.1681932554 Eh

Convergence Acceleration:
 DIIS                   CNVDIIS         .... on
   Start iteration      DIISMaxIt       ....    12
   Startup error        DIISStart       ....  0.200000
   # of expansion vecs  DIISMaxEq       ....     5
   Bias factor          DIISBfac        ....   1.050
   Max. coefficient     DIISMaxC        ....  10.000
 Newton-Raphson         CNVNR           .... off
 SOSCF                  CNVSOSCF        .... on
   Start iteration      SOSCFMaxIt      ....   150
   Startup grad/error   SOSCFStart      ....  0.003300
 Level Shifting         CNVShift        .... on
   Level shift para.    LevelShift      ....    0.2500
   Turn off err/grad.   ShiftErr        ....    0.0010
 Zerner damping         CNVZerner       .... off
 Static damping         CNVDamp         .... on
   Fraction old density DampFac         ....    0.7000
   Max. Damping (<1)    DampMax         ....    0.9800
   Min. Damping (>=0)   DampMin         ....    0.0000
   Turn off err/grad.   DampErr         ....    0.1000
 Fernandez-Rico         CNVRico         .... off

SCF Procedure:
 Maximum # iterations   MaxIter         ....   125
 SCF integral mode      SCFMode         .... Direct
   Integral package                     .... LIBINT
 Reset frequeny         DirectResetFreq ....    20
 Integral Threshold     Thresh          ....  2.500e-11 Eh
 Primitive CutOff       TCut            ....  2.500e-12 Eh

Convergence Tolerance:
 Convergence Check Mode ConvCheckMode   .... Total+1el-Energy
 Energy Change          TolE            ....  1.000e-08 Eh
 1-El. energy change                    ....  1.000e-05 Eh
 Orbital Gradient       TolG            ....  1.000e-05
 Orbital Rotation angle TolX            ....  1.000e-05
 DIIS Error             TolErr          ....  5.000e-07


Diagonalization of the overlap matrix:
Smallest eigenvalue                        ... 6.290e-02
Time for diagonalization                   ...    0.033 sec
Threshold for overlap eigenvalues          ... 1.000e-08
Number of eigenvalues below threshold      ... 0
Time for construction of square roots      ...    0.003 sec
Total time needed                          ...    0.036 sec

-------------------
DFT GRID GENERATION
-------------------

General Integration Accuracy     IntAcc      ...  4.340
Radial Grid Type                 RadialGrid  ... Gauss-Chebyshev
Angular Grid (max. acc.)         AngularGrid ... Lebedev-110
Angular grid pruning method      GridPruning ... 3 (G Style)
Weight generation scheme         WeightScheme... Becke
Basis function cutoff            BFCut       ...    1.0000e-11
Integration weight cutoff        WCut        ...    1.0000e-14
Grids for H and He will be reduced by one unit

# of grid points (after initial pruning)     ...   3304 (   0.0 sec)
# of grid points (after weights+screening)   ...   3264 (   0.0 sec)
nearest neighbour list constructed           ...    0.0 sec
Grid point re-assignment to atoms done       ...    0.0 sec
Grid point division into batches done        ...    0.0 sec
Reduced shell lists constructed in    0.0 sec

Total number of grid points                  ...     3264
Total number of batches                      ...       53
Average number of points per batch           ...       61
Average number of grid points per atom       ...     1088
Average number of shells per batch           ...     9.35 (93.52%)
Average number of basis functions per batch  ...    17.09 (94.96%)
Average number of large shells per batch     ...     9.02 (96.44%)
Average number of large basis fcns per batch ...    16.46 (96.32%)
Maximum spatial batch extension              ...  16.58, 21.59, 25.65 au
Average spatial batch extension              ...   5.48,  5.52,  6.70 au

Time for grid setup =    0.024 sec

------------------------------
INITIAL GUESS: MODEL POTENTIAL
------------------------------
Loading Hartree-Fock densities                     ... done
Calculating cut-offs                               ... done
Setting up the integral package                    ... done
Initializing the effective Hamiltonian             ... done
Starting the Coulomb interaction                   ... done (   0.0 sec)
Reading the grid                                   ... done
Mapping shells                                     ... done
Starting the XC term evaluation                    ... done (   0.0 sec)
Transforming the Hamiltonian                       ... done (   0.0 sec)
Diagonalizing the Hamiltonian                      ... done (   0.0 sec)
Back transforming the eigenvectors                 ... done (   0.0 sec)
Now organizing SCF variables                       ... done
                      ------------------
                      INITIAL GUESS DONE (   0.1 sec)
                      ------------------
--------------
SCF ITERATIONS
--------------
ITER       Energy         Delta-E        Max-DP      RMS-DP      [F,P]     Damp
               ***  Starting incremental Fock matrix formation  ***
  0    -75.9130638395   0.000000000000 0.06733532  0.00830468  0.3157863 0.7000
  1    -75.9508302804  -0.037766440873 0.04691581  0.00561598  0.1895944 0.7000
                               ***Turning on DIIS***
  2    -75.9709204103  -0.020090129943 0.02704860  0.00305600  0.1036282 0.7000
  3    -76.1440082790  -0.173087868708 0.04061280  0.00403640  0.0580194 0.0000
  4    -75.9929045041   0.151103774941 0.00824000  0.00089533  0.0130261 0.0000
                      *** Initiating the SOSCF procedure ***
                           *** Shutting down DIIS ***
                      *** Re-Reading the Fockian *** 
                      *** Removing any level shift *** 
ITER      Energy       Delta-E        Grad      Rot      Max-DP    RMS-DP
  5    -76.01268793  -0.0197834247  0.001541  0.001541  0.001658  0.000230
               *** Restarting incremental Fock matrix formation ***
  6    -76.00900697   0.0036809542  0.000540  0.000688  0.000657  0.000119
  7    -76.00900893  -0.0000019599  0.000303  0.000466  0.000771  0.000089
  8    -76.00900932  -0.0000003829  0.000108  0.000050  0.000121  0.000013
  9    -76.00900934  -0.0000000230  0.000024  0.000015  0.000022  0.000003
 10    -76.00900934  -0.0000000015  0.000004  0.000004  0.000007  0.000001
                 **** Energy Check signals convergence ****
              ***Rediagonalizing the Fockian in SOSCF/NRSCF***

               *****************************************************
               *                     SUCCESS                       *
               *           SCF CONVERGED AFTER  11 CYCLES          *
               *****************************************************


----------------
TOTAL SCF ENERGY
----------------

Total Energy       :          -76.00900934 Eh           -2068.31030 eV

Components:
Nuclear Repulsion  :            9.16819326 Eh             249.47922 eV
Electronic Energy  :          -85.17720260 Eh           -2317.78952 eV

One Electron Energy:         -123.01764802 Eh           -3347.48039 eV
Two Electron Energy:           37.84044542 Eh            1029.69087 eV

Virial components:
Potential Energy   :         -151.97669956 Eh           -4135.49624 eV
Kinetic Energy     :           75.96769022 Eh            2067.18594 eV
Virial Ratio       :            2.00054390


---------------
SCF CONVERGENCE
---------------

  Last Energy change         ...   -1.0593e-10  Tolerance :   1.0000e-08
  Last MAX-Density change    ...    2.8317e-06  Tolerance :   1.0000e-07
  Last RMS-Density change    ...    3.5077e-07  Tolerance :   5.0000e-09
  Last Orbital Gradient      ...    7.9234e-07  Tolerance :   1.0000e-05
  Last Orbital Rotation      ...    1.9477e-06  Tolerance :   1.0000e-05

             **** THE GBW FILE WAS UPDATED (h2o.gbw) ****
             **** DENSITY FILE WAS UPDATED (h2o.scfp.tmp) ****
             **** ENERGY FILE WAS UPDATED (h2o.en.tmp) ****
----------------
ORBITAL ENERGIES
----------------

  NO   OCC          E(Eh)            E(eV) 
   0   2.0000     -20.555389      -559.3406 
   1   2.0000      -1.339922       -36.4611 
   2   2.0000      -0.705177       -19.1889 
   3   2.0000      -0.570490       -15.5238 
   4   2.0000      -0.497398       -13.5349 
   5   0.0000       0.214074         5.8252 
   6   0.0000       0.303776         8.2662 
   7   0.0000       1.021183        27.7878 
   8   0.0000       1.160459        31.5777 
   9   0.0000       1.168299        31.7910 
  10   0.0000       1.197866        32.5956 
  11   0.0000       1.380290        37.5596 
  12   0.0000       1.659658        45.1616 
  13   0.0000       2.021075        54.9962 
  14   0.0000       2.034210        55.3537 
  15   0.0000       2.068062        56.2748 
  16   0.0000       2.627175        71.4891 
  17   0.0000       2.942208        80.0615 

                    ********************************
                    * MULLIKEN POPULATION ANALYSIS *
                    ********************************

-----------------------
MULLIKEN ATOMIC CHARGES
-----------------------
   0 H :    0.448556
   1 O :   -0.897112
   2 H :    0.448556
Sum of atomic charges:   -0.0000000

--------------------------------
MULLIKEN REDUCED ORBITAL CHARGES
--------------------------------
  0 H s       :     0.551444  s :     0.551444
  1 O s       :     3.892700  s :     3.892700
      pz      :     1.997714  p :     4.973767
      px      :     1.448651
      py      :     1.527402
      dz2     :     0.006217  d :     0.030645
      dxz     :     0.000857
      dyz     :     0.001429
      dx2y2   :     0.020602
      dxy     :     0.001540
  2 H s       :     0.551444  s :     0.551444


                     *******************************
                     * LOEWDIN POPULATION ANALYSIS *
                     *******************************

----------------------
LOEWDIN ATOMIC CHARGES
----------------------
   0 H :    0.325734
   1 O :   -0.651469
   2 H :    0.325734

-------------------------------
LOEWDIN REDUCED ORBITAL CHARGES
-------------------------------
  0 H s       :     0.674266  s :     0.674266
  1 O s       :     3.631491  s :     3.631491
      pz      :     1.997714  p :     4.982571
      px      :     1.452401
      py      :     1.532456
      dz2     :     0.006906  d :     0.037407
      dxz     :     0.000857
      dyz     :     0.001429
      dx2y2   :     0.025946
      dxy     :     0.002269
  2 H s       :     0.674266  s :     0.674266


                      *****************************
                      * MAYER POPULATION ANALYSIS *
                      *****************************

  NA   - Mulliken gross atomic population
  ZA   - Total nuclear charge
  QA   - Mulliken gross atomic charge
  VA   - Mayer's total valence
  BVA  - Mayer's bonded valence
  FA   - Mayer's free valence

  ATOM       NA         ZA         QA         VA         BVA        FA
  0 H      0.5514     1.0000     0.4486     0.7655     0.7655    -0.0000
  1 O      8.8971     8.0000    -0.8971     1.5393     1.5393    -0.0000
  2 H      0.5514     1.0000     0.4486     0.7655     0.7655     0.0000

  Mayer bond orders larger than 0.1
B(  0-H ,  1-O ) :   0.7696 B(  1-O ,  2-H ) :   0.7696 

-------
TIMINGS
-------

Total SCF time: 0 days 0 hours 0 min 0 sec 

Total time                  ....       0.836 sec
Sum of individual times     ....       0.927 sec  (110.8%)

Fock matrix formation       ....       0.794 sec  ( 95.0%)
Diagonalization             ....       0.001 sec  (  0.1%)
Density matrix formation    ....       0.000 sec  (  0.0%)
Population analysis         ....       0.004 sec  (  0.4%)
Initial guess               ....       0.097 sec  ( 11.6%)
Orbital Transformation      ....       0.000 sec  (  0.0%)
Orbital Orthonormalization  ....       0.000 sec  (  0.0%)
DIIS solution               ....       0.004 sec  (  0.5%)
SOSCF solution              ....       0.003 sec  (  0.4%)

-------------------------   --------------------
FINAL SINGLE POINT ENERGY       -76.009009341811
-------------------------   --------------------

------------------------------------------------------------------------------
                         ORCA SCF GRADIENT CALCULATION
------------------------------------------------------------------------------

Gradient of the Hartree-Fock SCF energy:
Hartree-Fock type                ... RHF
Number of operators              ...    1
Number of atoms                  ...    3
Basis set dimensions             ...   18
Integral neglect threshold       ... 2.5e-11
Integral primitive cutoff        ... 2.5e-12

Nuclear repulsion gradient       ... done
One Electron Gradient            ... done
Pre-screening matrix             ... done
Starting the two electron gradient:
Two electron gradient done

------------------
CARTESIAN GRADIENT
------------------

   1   H   :    0.013014455    0.001261716    0.000000000
   2   O   :   -0.010977414   -0.014177533    0.000000000
   3   H   :   -0.002037041    0.012915817   -0.000000000

Norm of the cartesian gradient     ...    0.025757366
RMS gradient                       ...    0.008585789
MAX gradient                       ...    0.014177533

-------
TIMINGS
-------

Total SCF gradient time            ...        0.084 sec

One electron gradient       ....       0.001 sec  (  0.9%)
Prescreening matrices       ....       0.002 sec  (  2.8%)
Two electron gradient       ....       0.005 sec  (  6.1%)
------------------------------------------------------------------------------
                         ORCA GEOMETRY RELAXATION STEP
------------------------------------------------------------------------------

Reading the OPT-File                    .... done
Getting information on internals        .... done
Copying old internal coords+grads       .... done
Making the new internal coordinates     .... (new redundants).... done
Validating the new internal coordinates .... (new redundants).... done
Calculating the B-matrix                .... done
Calculating the G,G- and P matrices     .... done
Transforming gradient to internals      .... done
Projecting the internal gradient        .... done
Number of atoms                         ....   3
Number of internal coordinates          ....   3
Current Energy                          ....   -76.009009342 Eh
Current gradient norm                   ....     0.025757366 Eh/bohr
Maximum allowed component of the step   ....  0.300
Current trust radius                    ....  0.300
Evaluating the initial hessian          ....  (Almloef) done
Projecting the Hessian                  .... done
Forming the augmented Hessian           .... done
Diagonalizing the augmented Hessian     .... done
Last element of RFO vector              ....  0.999350555
Lowest eigenvalues of augmented Hessian:
 -0.000666912  0.321850007  0.519956176
Length of the computed step             ....  0.036057694
The final length of the internal step   ....  0.036057694
Converting the step to cartesian space:
 Initial RMS(Int)=    0.0208179192
Transforming coordinates:
 Iter   0:  RMS(Cart)=    0.0092981374 RMS(Int)=    0.0208199937
 Iter   1:  RMS(Cart)=    0.0000349239 RMS(Int)=    0.0000588159
 Iter   2:  RMS(Cart)=    0.0000005138 RMS(Int)=    0.0000008264
 Iter   3:  RMS(Cart)=    0.0000000067 RMS(Int)=    0.0000000108
done
Storing new coordinates                 .... done

                                .--------------------.
          ----------------------|Geometry convergence|---------------------
          Item                value                 Tolerance   Converged
          -----------------------------------------------------------------
          RMS gradient        0.01070811            0.00003000      NO
          MAX gradient        0.01301445            0.00010000      NO
          RMS step            0.02081792            0.00060000      NO
          MAX step            0.02499784            0.00100000      NO
          ....................................................
          Max(Bonds)      0.0132      Max(Angles)    0.41
          Max(Dihed)        0.00      Max(Improp)    0.00
          -----------------------------------------------------------------

The optimization has not yet converged - more geometry cycles are needed


    ---------------------------------------------------------------------------
                         Redundant Internal Coordinates
                            (Angstroem and degrees)

        Definition                    Value    dE/dq     Step     New-Value
    ----------------------------------------------------------------------------
     1. B(O   1,H   0)                0.9600  0.013014 -0.0132    0.9468   
     2. B(H   2,O   1)                0.9600  0.013014 -0.0132    0.9468   
     3. A(H   0,O   1,H   2)          104.50 -0.002289    0.41    104.91   
    ----------------------------------------------------------------------------

         *************************************************************
         *                GEOMETRY OPTIMIZATION CYCLE   2            *
         *************************************************************
---------------------------------
CARTESIAN COORDINATES (ANGSTROEM)
---------------------------------
  H      0.951157    0.002311    0.000000
  O      0.004391    0.005671    0.000000
  H     -0.235913    0.921439    0.000000

----------------------------
CARTESIAN COORDINATES (A.U.)
----------------------------
  NO LB      ZA    FRAG    MASS        X           Y           Z
   0 H     1.0000    0     1.008          1.797426047220797          0.004367996878594          0.000000000000000
   1 O     8.0000    0    15.999          0.008298064446191          0.010717100940859          0.000000000000000
   2 H     1.0000    0     1.008         -0.445810674692156          1.741267443796614          0.000000000000000

--------------------------------
INTERNAL COORDINATES (ANGSTROEM)
--------------------------------
 H      0   0   0   0.000000     0.000     0.000
 O      1   0   0   0.946772     0.000     0.000
 H      2   1   0   0.946772   104.907     0.000

---------------------------
INTERNAL COORDINATES (A.U.)
---------------------------
 H      0   0   0   0.000000     0.000     0.000
 O      1   0   0   1.789139     0.000     0.000
 H      2   1   0   1.789139   104.907     0.000


Diagonalization of the overlap matrix:
Smallest eigenvalue                        ... 6.091e-02
Time for diagonalization                   ...    0.000 sec
Threshold for overlap eigenvalues          ... 1.000e-08
Number of eigenvalues below threshold      ... 0
Time for construction of square roots      ...    0.002 sec
Total time needed                          ...    0.002 sec

--------------
SCF ITERATIONS
--------------
ITER       Energy         Delta-E        Max-DP      RMS-DP      [F,P]     Damp
               ***  Starting incremental Fock matrix formation  ***
  0    -76.0091894810   0.000000000000 0.00160561  0.00023489  0.0088204 0.7000
                      *** Initiating the SOSCF procedure ***
                      *** Re-Reading the Fockian *** 
                      *** Removing any level shift *** 
ITER      Energy       Delta-E        Grad      Rot      Max-DP    RMS-DP
  1    -76.00922685  -0.0000373680  0.000793  0.000793  0.004071  0.000633
               *** Restarting incremental Fock matrix formation ***
  2    -76.00931431  -0.0000874600  0.001878  0.001127  0.002774  0.000289
  3    -76.00932311  -0.0000087971  0.000696  0.000710  0.000829  0.000122
  4    -76.00932538  -0.0000022702  0.000129  0.000228  0.000185  0.000036
  5    -76.00932547  -0.0000000978  0.000020  0.000037  0.000037  0.000007
  6    -76.00932548  -0.0000000049  0.000009  0.000009  0.000015  0.000002
                 **** Energy Check signals convergence ****
              ***Rediagonalizing the Fockian in SOSCF/NRSCF***

               *****************************************************
               *                     SUCCESS                       *
               *           SCF CONVERGED AFTER   7 CYCLES          *
               *****************************************************

Total Energy       :          -76.00932548 Eh           -2068.31890 eV
  Last Energy change         ...   -3.8386e-10  Tolerance :   1.0000e-08
  Last MAX-Density change    ...    2.4082e-06  Tolerance :   1.0000e-07
             **** THE GBW FILE WAS UPDATED (h2o.gbw) ****
             **** DENSITY FILE WAS UPDATED (h2o.scfp.tmp) ****
             **** ENERGY FILE WAS UPDATED (h2o.en.tmp) ****
Total SCF time: 0 days 0 hours 0 min 0 sec 

-------------------------   --------------------
FINAL SINGLE POINT ENERGY       -76.009325479424
-------------------------   --------------------

------------------------------------------------------------------------------
                         ORCA SCF GRADIENT CALCULATION
------------------------------------------------------------------------------

Gradient of the Hartree-Fock SCF energy:
Hartree-Fock type                ... RHF
Number of operators              ...    1
Number of atoms                  ...    3
Basis set dimensions             ...   18
Integral neglect threshold       ... 2.5e-11
Integral primitive cutoff        ... 2.5e-12

Nuclear repulsion gradient       ... done
One Electron Gradient            ... done
Pre-screening matrix             ... done
Starting the two electron gradient:
Two electron gradient done

------------------
CARTESIAN GRADIENT
------------------

   1   H   :   -0.001243115    0.001328520    0.000000000
   2   O   :   -0.000354343   -0.000457634    0.000000000
   3   H   :    0.001597458   -0.000870886   -0.000000000

Norm of the cartesian gradient     ...    0.002637348
RMS gradient                       ...    0.000879116
MAX gradient                       ...    0.001597458

-------
TIMINGS
-------

Total SCF gradient time            ...        0.092 sec

One electron gradient       ....       0.001 sec  (  0.8%)
Prescreening matrices       ....       0.002 sec  (  2.6%)
Two electron gradient       ....       0.005 sec  (  5.6%)
------------------------------------------------------------------------------
                         ORCA GEOMETRY RELAXATION STEP
------------------------------------------------------------------------------

Reading the OPT-File                    .... done
Getting information on internals        .... done
Copying old internal coords+grads       .... done
Making the new internal coordinates     .... (new redundants).... done
Validating the new internal coordinates .... (new redundants).... done
Calculating the B-matrix                .... done
Calculating the G,G- and P matrices     .... done
Transforming gradient to internals      .... done
Projecting the internal gradient        .... done
Number of atoms                         ....   3
Number of internal coordinates          ....   3
Current Energy                          ....   -76.009325479 Eh
Current gradient norm                   ....     0.002637348 Eh/bohr
Maximum allowed component of the step   ....  0.300
Current trust radius                    ....  0.300
Updating the Hessian (BFGS)             .... done
Forming the augmented Hessian           .... done
Diagonalizing the augmented Hessian     .... done
Last element of RFO vector              ....  0.999972450
Lowest eigenvalues of augmented Hessian:
 -0.000020710  0.299037177  0.519956176
Length of the computed step             ....  0.007423131
The final length of the internal step   ....  0.007423131
Converting the step to cartesian space:
 Initial RMS(Int)=    0.0042857468
Transforming coordinates:
 Iter   0:  RMS(Cart)=    0.0026504669 RMS(Int)=    0.0042850557
 Iter   1:  RMS(Cart)=    0.0000040053 RMS(Int)=    0.0000098278
 Iter   2:  RMS(Cart)=    0.0000000179 RMS(Int)=    0.0000000276
done
Storing new coordinates                 .... done

                                .--------------------.
          ----------------------|Geometry convergence|---------------------
          Item                value                 Tolerance   Converged
          -----------------------------------------------------------------
          Energy change      -0.00031614            0.00000100      NO
          RMS gradient        0.00170551            0.00003000      NO
          MAX gradient        0.00236900            0.00010000      NO
          RMS step            0.00428575            0.00060000      NO
          MAX step            0.00707985            0.00100000      NO
          ....................................................
          Max(Bonds)      0.0008      Max(Angles)    0.41
          Max(Dihed)        0.00      Max(Improp)    0.00
          -----------------------------------------------------------------

The optimization has not yet converged - more geometry cycles are needed


    ---------------------------------------------------------------------------
                         Redundant Internal Coordinates
                            (Angstroem and degrees)

        Definition                    Value    dE/dq     Step     New-Value
    ----------------------------------------------------------------------------
     1. B(O   1,H   0)                0.9468 -0.001248  0.0008    0.9476   
     2. B(H   2,O   1)                0.9468 -0.001248  0.0008    0.9476   
     3. A(H   0,O   1,H   2)          104.91 -0.002369    0.41    105.31   
    ----------------------------------------------------------------------------

         *************************************************************
         *                GEOMETRY OPTIMIZATION CYCLE   3            *
         *************************************************************
---------------------------------
CARTESIAN COORDINATES (ANGSTROEM)
---------------------------------
  H      0.952853    0.000090    0.000000
  O      0.005270    0.006807    0.000000
  H     -0.238489    0.922525    0.000000

----------------------------
CARTESIAN COORDINATES (A.U.)
----------------------------
  NO LB      ZA    FRAG    MASS        X           Y           Z
   0 H     1.0000    0     1.008          1.800631730344243          0.000169555172088          0.000000000000000
   1 O     8.0000    0    15.999          0.009959732572327          0.012863170675593          0.000000000000000
   2 H     1.0000    0     1.008         -0.450678025941737          1.743319815768387          0.000000000000000

--------------------------------
INTERNAL COORDINATES (ANGSTROEM)
--------------------------------
 H      0   0   0   0.000000     0.000     0.000
 O      1   0   0   0.947607     0.000     0.000
 H      2   1   0   0.947607   105.312     0.000

---------------------------
INTERNAL COORDINATES (A.U.)
---------------------------
 H      0   0   0   0.000000     0.000     0.000
 O      1   0   0   1.790717     0.000     0.000
 H      2   1   0   1.790717   105.312     0.000


Diagonalization of the overlap matrix:
Smallest eigenvalue                        ... 6.115e-02
Time for diagonalization                   ...    0.000 sec
Threshold for overlap eigenvalues          ... 1.000e-08
Number of eigenvalues below threshold      ... 0
Time for construction of square roots      ...    0.002 sec
Total time needed                          ...    0.002 sec

--------------
SCF ITERATIONS
--------------
ITER       Energy         Delta-E        Max-DP      RMS-DP      [F,P]     Damp
               ***  Starting incremental Fock matrix formation  ***
                      *** Initiating the SOSCF procedure ***
                      *** Re-Reading the Fockian *** 
                      *** Removing any level shift *** 
ITER      Energy       Delta-E        Grad      Rot      Max-DP    RMS-DP
  0    -76.00933728 -76.0093372759  0.000659  0.000659  0.000470  0.000079
               *** Restarting incremental Fock matrix formation ***
  1    -76.00933906  -0.0000017849  0.000224  0.000128  0.000150  0.000026
  2    -76.00933917  -0.0000001098  0.000050  0.000045  0.000050  0.000009
  3    -76.00933918  -0.0000000083  0.000017  0.000007  0.000014  0.000002
                 **** Energy Check signals convergence ****
              ***Rediagonalizing the Fockian in SOSCF/NRSCF***

               *****************************************************
               *                     SUCCESS                       *
               *           SCF CONVERGED AFTER   4 CYCLES          *
               *****************************************************

Total Energy       :          -76.00933918 Eh           -2068.31927 eV
  Last Energy change         ...   -1.0259e-09  Tolerance :   1.0000e-08
  Last MAX-Density change    ...    2.1073e-06  Tolerance :   1.0000e-07
             **** THE GBW FILE WAS UPDATED (h2o.gbw) ****
             **** DENSITY FILE WAS UPDATED (h2o.scfp.tmp) ****
             **** ENERGY FILE WAS UPDATED (h2o.en.tmp) ****
Total SCF time: 0 days 0 hours 0 min 0 sec 

-------------------------   --------------------
FINAL SINGLE POINT ENERGY       -76.009339179931
-------------------------   --------------------

------------------------------------------------------------------------------
                         ORCA SCF GRADIENT CALCULATION
------------------------------------------------------------------------------

Gradient of the Hartree-Fock SCF energy:
Hartree-Fock type                ... RHF
Number of operators              ...    1
Number of atoms                  ...    3
Basis set dimensions             ...   18
Integral neglect threshold       ... 2.5e-11
Integral primitive cutoff        ... 2.5e-12

Nuclear repulsion gradient       ... done
One Electron Gradient            ... done
Pre-screening matrix             ... done
Starting the two electron gradient:
Two electron gradient done

------------------
CARTESIAN GRADIENT
------------------

   1   H   :   -0.000084817    0.000507832    0.000000000
   2   O   :   -0.000428075   -0.000552870   -0.000000000
   3   H   :    0.000512892    0.000045039    0.000000000

Norm of the cartesian gradient     ...    0.001009498
RMS gradient                       ...    0.000336499
MAX gradient                       ...    0.000552870

-------
TIMINGS
-------

Total SCF gradient time            ...        0.082 sec

One electron gradient       ....       0.001 sec  (  0.9%)
Prescreening matrices       ....       0.002 sec  (  3.0%)
Two electron gradient       ....       0.005 sec  (  6.3%)
------------------------------------------------------------------------------
                         ORCA GEOMETRY RELAXATION STEP
------------------------------------------------------------------------------

Reading the OPT-File                    .... done
Getting information on internals        .... done
Copying old internal coords+grads       .... done
Making the new internal coordinates     .... (new redundants).... done
Validating the new internal coordinates .... (new redundants).... done
Calculating the B-matrix                .... done
Calculating the G,G- and P matrices     .... done
Transforming gradient to internals      .... done
Projecting the internal gradient        .... done
Number of atoms                         ....   3
Number of internal coordinates          ....   3
Current Energy                          ....   -76.009339180 Eh
Current gradient norm                   ....     0.001009498 Eh/bohr
Maximum allowed component of the step   ....  0.300
Current trust radius                    ....  0.300
Updating the Hessian (BFGS)             .... done
Forming the augmented Hessian           .... done
Diagonalizing the augmented Hessian     .... done
Last element of RFO vector              ....  0.999989153
Lowest eigenvalues of augmented Hessian:
 -0.000004223  0.192689601  0.519956176
Length of the computed step             ....  0.004657719
The final length of the internal step   ....  0.004657719
Converting the step to cartesian space:
 Initial RMS(Int)=    0.0026891355
Transforming coordinates:
 Iter   0:  RMS(Cart)=    0.0014873403 RMS(Int)=    0.0026891456
 Iter   1:  RMS(Cart)=    0.0000020037 RMS(Int)=    0.0000039649
 Iter   2:  RMS(Cart)=    0.0000000040 RMS(Int)=    0.0000000073
done
Storing new coordinates                 .... done

                                .--------------------.
          ----------------------|Geometry convergence|---------------------
          Item                value                 Tolerance   Converged
          -----------------------------------------------------------------
          Energy change      -0.00001370            0.00000100      NO
          RMS gradient        0.00052934            0.00003000      NO
          MAX gradient        0.00090828            0.00010000      NO
          RMS step            0.00268914            0.00060000      NO
          MAX step            0.00465737            0.00100000      NO
          ....................................................
          Max(Bonds)      0.0000      Max(Angles)    0.27
          Max(Dihed)        0.00      Max(Improp)    0.00
          -----------------------------------------------------------------

The optimization has not yet converged - more geometry cycles are needed


    ---------------------------------------------------------------------------
                         Redundant Internal Coordinates
                            (Angstroem and degrees)

        Definition                    Value    dE/dq     Step     New-Value
    ----------------------------------------------------------------------------
     1. B(O   1,H   0)                0.9476 -0.000088 -0.0000    0.9476   
     2. B(H   2,O   1)                0.9476 -0.000088 -0.0000    0.9476   
     3. A(H   0,O   1,H   2)          105.31 -0.000908    0.27    105.58   
    ----------------------------------------------------------------------------

         *************************************************************
         *                GEOMETRY OPTIMIZATION CYCLE   4            *
         *************************************************************
---------------------------------
CARTESIAN COORDINATES (ANGSTROEM)
---------------------------------
  H      0.953536   -0.001184    0.000000
  O      0.005992    0.007739    0.000000
  H     -0.239893    0.922867    0.000000

----------------------------
CARTESIAN COORDINATES (A.U.)
----------------------------
  NO LB      ZA    FRAG    MASS        X           Y           Z
   0 H     1.0000    0     1.008          1.801921153164460         -0.002237967353779          0.000000000000000
   1 O     8.0000    0    15.999          0.011323991738158          0.014625140622126          0.000000000000000
   2 H     1.0000    0     1.008         -0.453331707927786          1.743965368347720          0.000000000000000

--------------------------------
INTERNAL COORDINATES (ANGSTROEM)
--------------------------------
 H      0   0   0   0.000000     0.000     0.000
 O      1   0   0   0.947585     0.000     0.000
 H      2   1   0   0.947585   105.579     0.000

---------------------------
INTERNAL COORDINATES (A.U.)
---------------------------
 H      0   0   0   0.000000     0.000     0.000
 O      1   0   0   1.790677     0.000     0.000
 H      2   1   0   1.790677   105.579     0.000


Diagonalization of the overlap matrix:
Smallest eigenvalue                        ... 6.122e-02
Time for diagonalization                   ...    0.000 sec
Threshold for overlap eigenvalues          ... 1.000e-08
Number of eigenvalues below threshold      ... 0
Time for construction of square roots      ...    0.002 sec
Total time needed                          ...    0.002 sec

--------------
SCF ITERATIONS
--------------
ITER       Energy         Delta-E        Max-DP      RMS-DP      [F,P]     Damp
               ***  Starting incremental Fock matrix formation  ***
                      *** Initiating the SOSCF procedure ***
                      *** Re-Reading the Fockian *** 
                      *** Removing any level shift *** 
ITER      Energy       Delta-E        Grad      Rot      Max-DP    RMS-DP
  0    -76.00934060 -76.0093406016  0.000435  0.000435  0.000314  0.000049
               *** Restarting incremental Fock matrix formation ***
  1    -76.00934125  -0.0000006528  0.000147  0.000084  0.000105  0.000020
  2    -76.00934132  -0.0000000670  0.000040  0.000049  0.000043  0.000009
  3    -76.00934133  -0.0000000070  0.000010  0.000007  0.000016  0.000002
  4    -76.00934133  -0.0000000003  0.000005  0.000003  0.000004  0.000001
                 **** Energy Check signals convergence ****
              ***Rediagonalizing the Fockian in SOSCF/NRSCF***

               *****************************************************
               *                     SUCCESS                       *
               *           SCF CONVERGED AFTER   5 CYCLES          *
               *****************************************************

Total Energy       :          -76.00934133 Eh           -2068.31933 eV
  Last Energy change         ...   -5.9345e-11  Tolerance :   1.0000e-08
  Last MAX-Density change    ...    1.1050e-06  Tolerance :   1.0000e-07
             **** THE GBW FILE WAS UPDATED (h2o.gbw) ****
             **** DENSITY FILE WAS UPDATED (h2o.scfp.tmp) ****
             **** ENERGY FILE WAS UPDATED (h2o.en.tmp) ****
Total SCF time: 0 days 0 hours 0 min 0 sec 

-------------------------   --------------------
FINAL SINGLE POINT ENERGY       -76.009341328895
-------------------------   --------------------

------------------------------------------------------------------------------
                         ORCA SCF GRADIENT CALCULATION
------------------------------------------------------------------------------

Gradient of the Hartree-Fock SCF energy:
Hartree-Fock type                ... RHF
Number of operators              ...    1
Number of atoms                  ...    3
Basis set dimensions             ...   18
Integral neglect threshold       ... 2.5e-11
Integral primitive cutoff        ... 2.5e-12

Nuclear repulsion gradient       ... done
One Electron Gradient            ... done
Pre-screening matrix             ... done
Starting the two electron gradient:
Two electron gradient done

------------------
CARTESIAN GRADIENT
------------------

   1   H   :    0.000022513    0.000008869   -0.000000000
   2   O   :   -0.000025464   -0.000032882    0.000000000
   3   H   :    0.000002951    0.000024013   -0.000000000

Norm of the cartesian gradient     ...    0.000053856
RMS gradient                       ...    0.000017952
MAX gradient                       ...    0.000032882

-------
TIMINGS
-------

Total SCF gradient time            ...        0.082 sec

One electron gradient       ....       0.001 sec  (  0.9%)
Prescreening matrices       ....       0.002 sec  (  3.0%)
Two electron gradient       ....       0.005 sec  (  6.3%)
------------------------------------------------------------------------------
                         ORCA GEOMETRY RELAXATION STEP
------------------------------------------------------------------------------

Reading the OPT-File                    .... done
Getting information on internals        .... done
Copying old internal coords+grads       .... done
Making the new internal coordinates     .... (new redundants).... done
Validating the new internal coordinates .... (new redundants).... done
Calculating the B-matrix                .... done
Calculating the G,G- and P matrices     .... done
Transforming gradient to internals      .... done
Projecting the internal gradient        .... done
Number of atoms                         ....   3
Number of internal coordinates          ....   3
Current Energy                          ....   -76.009341329 Eh
Current gradient norm                   ....     0.000053856 Eh/bohr
Maximum allowed component of the step   ....  0.300
Current trust radius                    ....  0.300
Updating the Hessian (BFGS)             .... done
Forming the augmented Hessian           .... done
Diagonalizing the augmented Hessian     .... done
Last element of RFO vector              ....  0.999999994
Lowest eigenvalues of augmented Hessian:
 -0.000000003  0.188143931  0.519956176
Length of the computed step             ....  0.000112415
The final length of the internal step   ....  0.000112415
Converting the step to cartesian space:
 Initial RMS(Int)=    0.0000649029
Transforming coordinates:
 Iter   0:  RMS(Cart)=    0.0000271991 RMS(Int)=    0.0000649032
 Iter   1:  RMS(Cart)=    0.0000000013 RMS(Int)=    0.0000000021
done
Storing new coordinates                 .... done

                                .--------------------.
          ----------------------|Geometry convergence|---------------------
          Item                value                 Tolerance   Converged
          -----------------------------------------------------------------
          Energy change      -0.00000215            0.00000100      NO
          RMS gradient        0.00002058            0.00003000      YES
          MAX gradient        0.00002243            0.00010000      YES
          RMS step            0.00006490            0.00060000      YES
          MAX step            0.00009693            0.00100000      YES
          ....................................................
          Max(Bonds)      0.0000      Max(Angles)    0.01
          Max(Dihed)        0.00      Max(Improp)    0.00
          -----------------------------------------------------------------

       Everything but the energy has converged. However, the energy
       appears to be close enough to convergence to make sure that the
       final evaluation at the new geometry represents the equilibrium energy.
       Convergence will therefore be signaled now


                    ***********************HURRAY********************
                    ***        THE OPTIMIZATION HAS CONVERGED     ***
                    *************************************************


    ---------------------------------------------------------------------------
                         Redundant Internal Coordinates

                          --- Optimized Parameters ---  
                            (Angstroem and degrees)

        Definition                    OldVal   dE/dq     Step     FinalVal
    ----------------------------------------------------------------------------
     1. B(O   1,H   0)                0.9476  0.000022 -0.0000    0.9476   
     2. B(H   2,O   1)                0.9476  0.000022 -0.0000    0.9476   
     3. A(H   0,O   1,H   2)          105.58 -0.000016    0.01    105.58   
    ----------------------------------------------------------------------------
                 *******************************************************
                 *** FINAL ENERGY EVALUATION AT THE STATIONARY POINT ***
                 ***               (AFTER    4 CYCLES)               ***
                 *******************************************************
---------------------------------
CARTESIAN COORDINATES (ANGSTROEM)
---------------------------------
  H      0.953534   -0.001204    0.000000
  O      0.006013    0.007765    0.000000
  H     -0.239911    0.922860    0.000000

----------------------------
CARTESIAN COORDINATES (A.U.)
----------------------------
  NO LB      ZA    FRAG    MASS        X           Y           Z
   0 H     1.0000    0     1.008          1.801918225697936         -0.002275103886364          0.000000000000000
   1 O     8.0000    0    15.999          0.011362140739493          0.014674406391450          0.000000000000000
   2 H     1.0000    0     1.008         -0.453366929462597          1.743953239110981          0.000000000000000

--------------------------------
INTERNAL COORDINATES (ANGSTROEM)
--------------------------------
 H      0   0   0   0.000000     0.000     0.000
 O      1   0   0   0.947564     0.000     0.000
 H      2   1   0   0.947564   105.585     0.000

---------------------------
INTERNAL COORDINATES (A.U.)
---------------------------
 H      0   0   0   0.000000     0.000     0.000
 O      1   0   0   1.790636     0.000     0.000
 H      2   1   0   1.790636   105.585     0.000

---------------------
BASIS SET INFORMATION
---------------------
There are 2 groups of distinct atoms

 Group   1 Type H   : 4s contracted to 2s pattern {31}
 Group   2 Type O   : 10s4p1d contracted to 3s2p1d pattern {631/31/1}

Atom   0H    basis set group =>   1
Atom   1O    basis set group =>   2
Atom   2H    basis set group =>   1
------------------------------------------------------------------------------
                           ORCA GTO INTEGRAL CALCULATION
------------------------------------------------------------------------------

                         BASIS SET STATISTICS AND STARTUP INFO

 # of primitive gaussian shells          ...   23
 # of primitive gaussian functions       ...   35
 # of contracted shell                   ...   10
 # of contracted basis functions         ...   18
 Highest angular momentum                ...    2
 Maximum contraction depth               ...    6
 Integral package used                   ... LIBINT
 Integral threshhold            Thresh   ...  2.500e-11
 Primitive cut-off              TCut     ...  2.500e-12


                              INTEGRAL EVALUATION

 One electron integrals                  ... done
 Pre-screening matrix                    ... done
 Shell pair data                         ... done (   0.000 sec)

-------------------------------------------------------------------------------
                                 ORCA SCF
-------------------------------------------------------------------------------

------------
SCF SETTINGS
------------
Hamiltonian:
 Ab initio Hamiltonian  Method          .... Hartree-Fock(GTOs)


General Settings:
 Integral files         IntName         .... h2o
 Hartree-Fock type      HFTyp           .... RHF
 Total Charge           Charge          ....    0
 Multiplicity           Mult            ....    1
 Number of Electrons    NEL             ....   10
 Basis Dimension        Dim             ....   18
 Nuclear Repulsion      ENuc            ....      9.2859652079 Eh

Convergence Acceleration:
 DIIS                   CNVDIIS         .... on
   Start iteration      DIISMaxIt       ....    12
   Startup error        DIISStart       ....  0.200000
   # of expansion vecs  DIISMaxEq       ....     5
   Bias factor          DIISBfac        ....   1.050
   Max. coefficient     DIISMaxC        ....  10.000
 Newton-Raphson         CNVNR           .... off
 SOSCF                  CNVSOSCF        .... on
   Start iteration      SOSCFMaxIt      ....   150
   Startup grad/error   SOSCFStart      ....  0.003300
 Level Shifting         CNVShift        .... on
   Level shift para.    LevelShift      ....    0.2500
   Turn off err/grad.   ShiftErr        ....    0.0010
 Zerner damping         CNVZerner       .... off
 Static damping         CNVDamp         .... on
   Fraction old density DampFac         ....    0.7000
   Max. Damping (<1)    DampMax         ....    0.9800
   Min. Damping (>=0)   DampMin         ....    0.0000
   Turn off err/grad.   DampErr         ....    0.1000
 Fernandez-Rico         CNVRico         .... off

SCF Procedure:
 Maximum # iterations   MaxIter         ....   125
 SCF integral mode      SCFMode         .... Direct
   Integral package                     .... LIBINT
 Reset frequeny         DirectResetFreq ....    20
 Integral Threshold     Thresh          ....  2.500e-11 Eh
 Primitive CutOff       TCut            ....  2.500e-12 Eh

Convergence Tolerance:
 Convergence Check Mode ConvCheckMode   .... Total+1el-Energy
 Energy Change          TolE            ....  1.000e-08 Eh
 1-El. energy change                    ....  1.000e-05 Eh
 Orbital Gradient       TolG            ....  1.000e-05
 Orbital Rotation angle TolX            ....  1.000e-05
 DIIS Error             TolErr          ....  5.000e-07


Diagonalization of the overlap matrix:
Smallest eigenvalue                        ... 6.122e-02
Time for diagonalization                   ...    0.000 sec
Threshold for overlap eigenvalues          ... 1.000e-08
Number of eigenvalues below threshold      ... 0
Time for construction of square roots      ...    0.002 sec
Total time needed                          ...    0.002 sec

---------------------
INITIAL GUESS: MOREAD
---------------------
Guess MOs are being read from file: h2o.gbw
Input Geometry matches current geometry (good)
Input basis set matches current basis set (good)
MOs were renormalized
MOs were reorthogonalized (Schmidt)
                      ------------------
                      INITIAL GUESS DONE (   0.0 sec)
                      ------------------
--------------
SCF ITERATIONS
--------------
ITER       Energy         Delta-E        Max-DP      RMS-DP      [F,P]     Damp
               ***  Starting incremental Fock matrix formation  ***
                      *** Initiating the SOSCF procedure ***
                      *** Re-Reading the Fockian *** 
                      *** Removing any level shift *** 
ITER      Energy       Delta-E        Grad      Rot      Max-DP    RMS-DP
  0    -76.00934133 -76.0093413299  0.000009  0.000009  0.000012  0.000002
               *** Restarting incremental Fock matrix formation ***
  1    -76.00934133  -0.0000000006  0.000004  0.000003  0.000006  0.000001
                  ***Gradient check signals convergence***
              ***Rediagonalizing the Fockian in SOSCF/NRSCF***

               *****************************************************
               *                     SUCCESS                       *
               *           SCF CONVERGED AFTER   2 CYCLES          *
               *****************************************************


----------------
TOTAL SCF ENERGY
----------------

Total Energy       :          -76.00934133 Eh           -2068.31933 eV

Components:
Nuclear Repulsion  :            9.28596521 Eh             252.68396 eV
Electronic Energy  :          -85.29530654 Eh           -2321.00329 eV

One Electron Energy:         -123.23005607 Eh           -3353.26030 eV
Two Electron Energy:           37.93474953 Eh            1032.25701 eV

Virial components:
Potential Energy   :         -152.02727234 Eh           -4136.87240 eV
Kinetic Energy     :           76.01793101 Eh            2068.55307 eV
Virial Ratio       :            1.99988700


---------------
SCF CONVERGENCE
---------------

  Last Energy change         ...   -1.0017e-10  Tolerance :   1.0000e-08
  Last MAX-Density change    ...    2.9256e-06  Tolerance :   1.0000e-07
  Last RMS-Density change    ...    5.1712e-07  Tolerance :   5.0000e-09
  Last Orbital Gradient      ...    7.9268e-07  Tolerance :   1.0000e-05
  Last Orbital Rotation      ...    3.0414e-06  Tolerance :   1.0000e-05

             **** THE GBW FILE WAS UPDATED (h2o.gbw) ****
             **** DENSITY FILE WAS UPDATED (h2o.scfp.tmp) ****
             **** ENERGY FILE WAS UPDATED (h2o.en.tmp) ****
----------------
ORBITAL ENERGIES
----------------

  NO   OCC          E(Eh)            E(eV) 
   0   2.0000     -20.552259      -559.2554 
   1   2.0000      -1.345495       -36.6128 
   2   2.0000      -0.714117       -19.4321 
   3   2.0000      -0.570555       -15.5256 
   4   2.0000      -0.497864       -13.5476 
   5   0.0000       0.217056         5.9064 
   6   0.0000       0.307166         8.3584 
   7   0.0000       1.031806        28.0769 
   8   0.0000       1.168544        31.7977 
   9   0.0000       1.168975        31.8094 
  10   0.0000       1.196352        32.5544 
  11   0.0000       1.385441        37.6998 
  12   0.0000       1.659761        45.1644 
  13   0.0000       2.021150        54.9983 
  14   0.0000       2.030280        55.2467 
  15   0.0000       2.067141        56.2498 
  16   0.0000       2.643396        71.9305 
  17   0.0000       2.965226        80.6879 

                    ********************************
                    * MULLIKEN POPULATION ANALYSIS *
                    ********************************

-----------------------
MULLIKEN ATOMIC CHARGES
-----------------------
   0 H :    0.450145
   1 O :   -0.900289
   2 H :    0.450145
Sum of atomic charges:   -0.0000000

--------------------------------
MULLIKEN REDUCED ORBITAL CHARGES
--------------------------------
  0 H s       :     0.549855  s :     0.549855
  1 O s       :     3.885712  s :     3.885712
      pz      :     1.997667  p :     4.983977
      px      :     1.452489
      py      :     1.533821
      dz2     :     0.006203  d :     0.030600
      dxz     :     0.000875
      dyz     :     0.001459
      dx2y2   :     0.020558
      dxy     :     0.001506
  2 H s       :     0.549855  s :     0.549855


                     *******************************
                     * LOEWDIN POPULATION ANALYSIS *
                     *******************************

----------------------
LOEWDIN ATOMIC CHARGES
----------------------
   0 H :    0.324960
   1 O :   -0.649919
   2 H :    0.324960

-------------------------------
LOEWDIN REDUCED ORBITAL CHARGES
-------------------------------
  0 H s       :     0.675040  s :     0.675040
  1 O s       :     3.619210  s :     3.619210
      pz      :     1.997667  p :     4.993111
      px      :     1.456238
      py      :     1.539207
      dz2     :     0.006926  d :     0.037598
      dxz     :     0.000875
      dyz     :     0.001459
      dx2y2   :     0.026055
      dxy     :     0.002284
  2 H s       :     0.675040  s :     0.675040


                      *****************************
                      * MAYER POPULATION ANALYSIS *
                      *****************************

  NA   - Mulliken gross atomic population
  ZA   - Total nuclear charge
  QA   - Mulliken gross atomic charge
  VA   - Mayer's total valence
  BVA  - Mayer's bonded valence
  FA   - Mayer's free valence

  ATOM       NA         ZA         QA         VA         BVA        FA
  0 H      0.5499     1.0000     0.4501     0.7640     0.7640    -0.0000
  1 O      8.9003     8.0000    -0.9003     1.5362     1.5362     0.0000
  2 H      0.5499     1.0000     0.4501     0.7640     0.7640     0.0000

  Mayer bond orders larger than 0.1
B(  0-H ,  1-O ) :   0.7681 B(  1-O ,  2-H ) :   0.7681 

-------
TIMINGS
-------

Total SCF time: 0 days 0 hours 0 min 0 sec 

Total time                  ....       0.202 sec
Sum of individual times     ....       0.191 sec  ( 94.6%)

Fock matrix formation       ....       0.186 sec  ( 91.8%)
Diagonalization             ....       0.000 sec  (  0.1%)
Density matrix formation    ....       0.000 sec  (  0.0%)
Population analysis         ....       0.003 sec  (  1.7%)
Initial guess               ....       0.001 sec  (  0.3%)
Orbital Transformation      ....       0.000 sec  (  0.0%)
Orbital Orthonormalization  ....       0.000 sec  (  0.0%)
DIIS solution               ....       0.000 sec  (  0.0%)
SOSCF solution              ....       0.001 sec  (  0.7%)

-------------------------   --------------------
FINAL SINGLE POINT ENERGY       -76.009341330598
-------------------------   --------------------

                                *** OPTIMIZATION RUN DONE ***

                            ***************************************
                            *     ORCA property calculations      *
                            ***************************************

                                    ---------------------
                                    Active property flags
                                    ---------------------
   (+) Dipole Moment


------------------------------------------------------------------------------
                       ORCA ELECTRIC PROPERTIES CALCULATION
------------------------------------------------------------------------------

Dipole Moment Calculation                       ... on
Quadrupole Moment Calculation                   ... off
Polarizability Calculation                      ... off
GBWName                                         ... h2o.gbw
Electron density file                           ... h2o.scfp.tmp

-------------
DIPOLE MOMENT
-------------
                                X             Y             Z
Electronic contribution:     -0.05627      -0.07267      -0.00000
Nuclear contribution   :      0.58398       0.75422       0.00000
                        -----------------------------------------
Total Dipole Moment    :      0.52772       0.68156      -0.00000
                        -----------------------------------------
Magnitude (a.u.)       :      0.86198
Magnitude (Debye)      :      2.19097


Timings for individual modules:

Sum of individual times         ...        9.971 sec (=   0.166 min)
GTO integral calculation        ...        2.105 sec (=   0.035 min)  21.1 %
SCF iterations                  ...        3.914 sec (=   0.065 min)  39.3 %
SCF Gradient evaluation         ...        2.374 sec (=   0.040 min)  23.8 %
Geometry relaxation             ...        1.578 sec (=   0.026 min)  15.8 %
                             ****ORCA TERMINATED NORMALLY****
TOTAL RUN TIME: 0 days 0 hours 0 minutes 11 seconds 679 msec
